% Model:              grrrr.mph
% Version:            COMSOL 5.1.0.234
% Date:               Jun 13 2019, 23:30
% Table:              Table 1 - Energy (((u1x^2+u2y^2)/kappa^2-(u1^2+u2^2)+0.5*(u1^2+u2^2)^2+(Ba-u4x-u3y)^2+1/kappa*((u2x*u1-u1x*u2)*u3+(u2y*u1-u1y*u2)*u4)+(u3^2+u4^2)*(u1^2+u2^2)))
% Time (s)                                        total energy             total energy             total energy             total energy             total energy             total energy
0                        10440.079811200265       10440.079811200134       61.92859481614564        28.937075991975465       20.14042017396422        20.14042027045245        38.430820574187386
0.1                      1.2467339066975472E9     1.2469483717660072E9     52.9885330093345         43.383564599455916       32.02455488981676        32.05316693648809        56.47290661082129
0.2                      7.216904269835331E9      7.212486986321803E9      50.83194187513884        54.77554377975612        40.85267536710674        41.061565059785536       71.35883419847315
0.30000000000000004      1.8453627231449333E10    1.8446386450134777E10    52.286112684119516       66.68730813336954        50.005174843663895       50.58242957801869        87.43171733543706
0.4                      3.4911960971852264E10    3.490189669273672E10     55.54035331684116        78.65079953959116        59.27989738446514        60.33534929651148        104.03804619039929
0.5                      5.6591905491044014E10    5.657901771412743E10     59.69852482107885        90.24236609750895        68.35701303959972        69.89923824824007        120.46233760782663
0.6000000000000001       8.349346078902467E10     8.347774951430692E10     64.23204094395011        101.18916279270204       76.9961798586996         78.96500595917382        136.20448674415624
0.7000000000000001       1.1561662686579427E11    1.155980920932756E11     68.87753783405844        111.32596834125754       85.10273790768407        87.40491827474278        151.04631227048293
0.8                      1.5296140372135297E11    1.5294004545103293E11    73.4270666600993         120.62713555056511       92.51842673601355        95.0691200237037         164.73052106154574
0.9                      1.9552779135569955E11    1.955036095875796E11     77.74364627560989        129.05050246378534       99.13482441660707        101.87636507262368       177.09620815987265
1                        2.4331578976883594E11    2.4328878450291434E11    81.7301840021062         136.58162388681484       104.95600162103577       107.85361880222707       188.15263109464368
1.1                      2.963253989607617E11     2.9629557019703827E11    85.33246466302808        143.2584296630913        110.06511394176243       113.09870517980782       198.00360226048016
1.2000000000000002       3.5455661893147504E11    3.545239666699521E11     88.54363767058544        149.15023114772893       114.54541038410689       117.69468297606117       206.36788653577196
1.3                      4.180094496809784E11     4.1797397392165393E11    91.35790466611095        154.37094457426372       118.50320351880693       121.79427228736172       214.31991377814862
1.4000000000000001       4.866838912092697E11     4.8664559195214435E11    93.79239592552216        158.98636784413392       121.99884577085807       125.40741884795302       221.48069445201926
1.5                      5.605799435163499E11     5.605388207614235E11     95.86993512930565        163.14155581982484       125.1510194549148        128.65889573304224       227.97075322278647
1.6                      6.39697606602222E11      6.396536603494924E11     97.6198615155764         166.8832246607176        127.98555626438647       131.63451311236793       233.81000400782648
1.7000000000000002       7.240368804668801E11     7.239901107163502E11     99.08368597958075        170.30683601168823       130.6127020981475        134.31986979515167       239.09443562542305
1.8                      8.135977651103252E11     8.135481718619954E11     100.26902453117056       173.4767055916114        133.02572493563986       136.81732710887573       243.9298289223445
1.9000000000000001       9.083802605325613E11     9.083278437864335E11     101.2270608012236        176.41684130901393       135.3107309810301        139.08174973504345       248.35671292007768
2                        1.0083843667335878E12    1.0083291264896572E12    101.97107724758192       179.2024484138699        137.45822819301904       141.24694769565343       252.48770830047403
2.1                      1.1136100837134028E12    1.1135520199716714E12    102.52290325905129       181.82778660429756       139.52658769490986       143.2545970712058        256.3185541430532
2.2                      1.2240574114720095E12    1.2239965242324739E12    102.91531362115688       184.3573094381285        141.51822435776776       145.20705410097082       259.9620811658445
2.3000000000000003       1.3397263500093972E12    1.3396626392720627E12    103.14963990484074       186.79066981462424       143.45315305406965       147.0608743367004        263.38195588037894
2.4000000000000004       1.4606168993255764E12    1.4605503650904407E12    103.25864834614661       189.15153261561116       145.34288114384884       148.85560919533935       266.63945434347914
2.5                      1.586729059420546E12     1.5866597016876086E12    103.25507382089806       191.45348510589892       147.18919888939018       150.59883894012683       269.7481392717879
2.6                      1.7180628302943066E12    1.717990649063569E12     103.15418067504126       193.69901594622308       149.00966822073667       152.3048585135234        272.73664211818146
2.7                      1.8546182119468503E12    1.8545432072183086E12    102.97217331243327       195.90551925032597       150.81327170128225       153.98954638479523       275.6298731288515
2.8000000000000003       1.9963952043781885E12    1.9963173761518508E12    102.7245389227322        198.08725834867914       152.60588852046473       155.65559325392096       278.4425661480588
2.9000000000000004       2.1433938075883135E12    2.143313155864176E12     102.42300661336807       200.2498097196218        154.39344848515108       157.31829203824367       281.20952705868774
3                        2.29561402157723E12      2.295530546355289E12     102.08034939644298       202.40025502090938       156.15969621688333       158.99442172569022       283.95935000681254
3.1                      2.453055846344932E12     2.4529695476251875E12    101.70675485891014       204.53234121347293       157.90608675641963       160.69870384034814       286.67259678493883
3.2                      2.615719281891419E12     2.6156301596738726E12    101.31127749897608       206.6279677683687        159.6412993069776        162.40461511416316       289.3341802597037
3.3000000000000003       2.7836043282167026E12    2.7835123825013574E12    100.90166497808016       208.70521057686565       161.36777504129515       164.1055295037265        291.98532790568606
3.4000000000000004       2.9567109853207734E12    2.9566162161076333E12    100.48323827302868       210.7668736065208        163.09308134237327       165.82502447456346       294.6408827940826
3.5                      3.1350392532036357E12    3.134941660492686E12     100.04496299023873       212.81591706424717       164.82441049789853       167.56897404524298       297.25222043785305
3.6                      3.3185891318652803E12    3.3184887156565327E12    99.60399445728136        214.8684140594643        166.5630037267615        169.32321735013718       299.82843895119413
3.7                      3.50736062130572E12      3.5072573815991694E12    99.16630507060304        216.92370430384096       168.3132851756037        171.06566868256635       302.3831164072311
3.8000000000000003       3.7013537215249404E12    3.7012476583205967E12    98.73781115982035        218.98630358598467       170.07330794717853       172.81264580068557       304.9182636530403
3.9000000000000004       3.9005684325229517E12    3.9004595458208037E12    98.32151162361191        221.06140139506016       171.8337429722478        174.56332031272837       307.42230709972426
4                        4.105004754299755E12     4.104893044099803E12     97.90852581624303        223.14207825396724       173.60431633977998       176.3165276426365        309.9018493192063
4.1000000000000005       4.3146626868553535E12    4.3145481531576045E12    97.51159763585271        225.22373605601163       175.38693750012115       178.07027076754295       312.35730581430755
4.2                      4.529542230189733E12     4.529424872994169E12     97.13474629832402        227.31619709966182       177.18165705304293       179.82415430245211       314.7894950722493
4.3                      4.749643384302904E12     4.74952320360955E12      96.78195342484415        229.4219199688602        178.97967164704545       181.57716284863616       317.20009245551097
4.4                      4.974966149194862E12     4.97484314500371E12      96.45041544079884        231.54165068339438       180.78684893346247       183.3290400217588        319.58934834037854
4.5                      5.205510524865598E12     5.205384697176665E12     96.1274993333991         233.66224288897848       182.60354613788263       185.0873721226997        321.9581380973185
4.6000000000000005       5.44127651131515E12      5.441147860128392E12     95.82539571522965        235.79237580516454       184.4300404829361        186.84814709221243       324.32239094392855
4.7                      5.682264108543472E12     5.682132633858916E12     95.5456131641783         237.93255513935247       186.25935891789007       188.6116487253509        326.6983440176866
4.800000000000001        5.928473316550583E12     5.928339018368206E12     95.28965149980871        240.08331126304557       188.09445642254076       190.37820726385218       329.08327034120185
4.9                      6.179904135336489E12     6.179767013656318E12     95.05350768478404        242.23922972409642       189.93475437066272       192.17885813779583       331.48354123026843
5                        6.436556564901186E12     6.436416619723218E12     94.8316742733889         244.39989684076255       191.7796743890626        193.99715110451962       333.8750035542504
5.1000000000000005       6.698430605244675E12     6.698287836568906E12     94.62942339896966        246.5664529399272        193.63311299425087       195.83139574110555       336.25946497588455
5.2                      6.965526256366941E12     6.965380664193372E12     94.44687445413771        248.73839115475732       195.49409306206232       197.68163640108193       338.64288944028664
5.300000000000001        7.237843518267985E12     7.237695102596623E12     94.28415106449859        250.91565969940666       197.3622052330304        199.49501521369984       341.02300956718847
5.4                      7.51538239094784E12      7.515231151778682E12     94.13850121068151        253.0991484379663        199.23762246208796       201.28260857712706       343.25916507583844
5.5                      7.798142874406464E12     7.797988811739509E12     94.0082981598493         255.28816734124365       201.11429401179322       203.0569550510569        345.4319628293241
5.6000000000000005       8.086124968643906E12     8.085968082479119E12     93.89478136127596        257.4827374313421        202.99030386282462       204.81767430398682       347.5405761264613
5.7                      8.3793286736601E12       8.379168963997548E12     93.79754207064482        259.68294766088945       204.86657150180724       206.63584359083833       349.6489276747902
5.800000000000001        8.677753989455127E12     8.677591456294734E12     93.71618217496328        261.88668997300294       206.74191655851592       208.53007289339703       351.95004214483913
5.9                      8.981400916028916E12     8.981235559370756E12     93.6498459968612         264.09426460939284       208.62256890351983       210.46228799040915       354.3098025125906
6                        9.290269453381496E12     9.290101273225531E12     93.5979613109624         266.30543426439425       210.51340855285304       212.43293121866085       356.7288916362616
6.1000000000000005       9.604359601512852E12     9.604188597859078E12     93.56013836824508        268.51977701771693       212.408932990971         214.4131392039868        359.13114526486584
6.2                      9.923671360423031E12     9.923497533271434E12     93.53582571343179        270.7399510241785        214.30902331495057       216.37040662224243       361.46545785513644
6.300000000000001        1.0248204730111955E13    1.0248028079462584E13    93.52445835193448        272.96961756387344       216.21449598977898       218.33589804023774       363.78808344636684
6.4                      1.0577959710579668E13    1.0577780236432508E13    93.52595850904225        275.20812785747034       218.12700824394238       220.3095751652306        366.098841141836
6.5                      1.091293630182625E13     1.0912754004181242E13    93.53976464367918        277.4571472469611        220.04502969572488       222.2940474707414        368.40939364116605
6.6000000000000005       1.1253134503851537E13    1.1252949382708773E13    93.5653128603342         279.7168960221776        221.9684700932436        224.29756806743447       370.7178193048305
6.7                      1.1598554316655646E13    1.1598366372015066E13    93.6021113198716         281.96384917464144       223.8963470515051        226.31410401172297       373.0210508388706
6.800000000000001        1.1949195740238545E13    1.1949004972100139E13    93.64965400339628        284.2050906016929        225.8233631838102        228.34369609362523       375.31901925772047
6.9                      1.2305058774600213E13    1.230486518296404E13     93.70842629403177        286.4358158391021        227.75289726787628       230.3863890868501        377.61166552673166
7                        1.26661434197407E13      1.2665947004606705E13    93.77776930323328        288.65049241213626       229.68482248413386       232.4422317920328        379.898940619962
7.1000000000000005       1.3032449675659979E13    1.3032250437028174E13    93.85735219013178        290.87037452174314       231.61901436451146       234.51127708033073       382.1808055796925
7.2                      1.3403977542358E13       1.3403775480228406E13    93.94690985492598        293.0991344835338        233.55535080987818       236.59358193729574       384.4498822160951
7.300000000000001        1.3780727019834832E13    1.3780522134207441E13    94.04617534151242        295.328290135651         235.49371210744252       238.68920750689145       386.6857392248015
7.4                      1.4162698108090453E13    1.4162490398965244E13    94.15455995137964        297.5583466620481        237.43398094810388       240.78459600511735       388.90795272054464
7.5                      1.4549890807124867E13    1.4549680274501889E13    94.27190366886667        299.7939385189109        239.37604244376777       242.8887875240728        391.11641208886056
7.6000000000000005       1.4942305116938062E13    1.4942091760817281E13    94.39787538209617        302.0459525907381        241.30748791931597       245.00299928460186       393.3110178439558
7.7                      1.5339941037530059E13    1.5339724857911492E13    94.53212827667988        304.305405434859         243.2346900176382        247.12724592826387       395.49168169086175
7.800000000000001        1.5742798568900832E13    1.574257956578445E13     94.67447778080329        306.57225390831337       245.15987059639332       249.26154582534588       397.65832658990894
7.9                      1.615087771105044E13     1.6150655884436246E13    94.8257237732691         308.84645728684893       247.08287580339615       251.40592111789948       399.8108868235757
8                        1.6564178463978764E13    1.656395381386679E13     94.98524459205727        311.11708160646145       249.00355451049182       253.56039776294716       401.93808078868085
8.1                      1.6982700827685938E13    1.6982473354076121E13    95.15299262838211        313.3886636619375        250.92175831822118       255.72500557575185       404.04361392454956
8.200000000000001        1.7406444802171842E13    1.7406214505064273E13    95.32895149137975        315.66249531067007       252.8373415604453        257.89845635766955       406.1309261972359
8.3                      1.783541038743659E13     1.7835177266831195E13    95.51268920794283        317.93847601905463       254.75016130890904       260.08065455185346       408.19992598799985
8.4                      1.8269597583480086E13    1.82693616393769E13      95.7028775872681         320.21650714287813       256.67158470808425       262.2725163825098        410.25053433854697
8.5                      1.870900639030236E13     1.8708767622701402E13    95.89991977523384        322.49649193514944       258.60667899791827       264.47407462552894       412.2826850142988
8.6                      1.915363680790349E13     1.9153395216804734E13    96.10349865691963        324.7783355538881        260.5442840935321        266.68536643635434       414.2963245699584
8.700000000000001        1.960348883628334E13     1.9603244421686734E13    96.31328523000066        327.0619450699111        262.48432297558014       268.9064334033968        416.2889872446654
8.8                      2.005856247544206E13     2.0058315237347625E13    96.52889964875848        329.34692544144286       264.4267206881686        271.1373216024327        418.25281175490176
8.9                      2.0518857725379496E13    2.051860766378725E13     96.7503728753791         331.6264070267435        266.37140434229786       273.3780816521154        420.1949112276898
9                        2.0984374586095754E13    2.0984121701005723E13    96.97783935960709        333.9058127907425        268.3183031192964        275.6258432116908        422.11519271252524
9.1                      2.1455113057590723E13    2.145485734900296E13     97.211301786229          336.18503415071046       270.2673482741702        277.8715807925244        424.01357660012314
9.200000000000001        2.1931073139864613E13    2.193081460777898E13     97.45078638808089        338.46396432673083       272.2163337534767        280.1241826217652        425.8899966848887
9.3                      2.2412254832917176E13    2.24119934773338E13      97.6958274964032         340.74249834483857       274.1515569824309        282.383684667158         427.74440022907675
9.4                      2.289865813674866E13     2.2898393957667434E13    97.94619398391674        343.0205330400597        276.0848260418381        284.65012959584925       429.576748028629
9.5                      2.339028305135883E13     2.339001604877979E13     98.20222524987507        345.2979670594673        278.01603018761864       286.9235668568693        431.3920911715684
9.600000000000001        2.388712957674776E13     2.388685975067099E13     98.46395852467064        347.57470086518316       279.9450611364619        289.20405276728064       433.18962179800894
9.700000000000001        2.438919771291554E13     2.438892506334095E13     98.73145187077813        349.85195926526274       281.87181306816933       291.491650602161         434.96792738289804
9.8                      2.4896487459862156E13    2.4896211986789773E13    99.00332644246878        352.13356114803236       283.79618262802353       293.7864306887297        436.72727913791334
9.9                      2.5408998817587465E13    2.540872052101725E13     99.27950990162489        354.4154738864172        285.718068929106         296.0809393504661        438.46795109861483
10                       2.59267317860916E13      2.5926450666023613E13    99.56052398527527        356.6976104694408        287.6373735546148        298.3790014035563        440.1902200500928
10.100000000000001       2.644968636537454E13     2.6449402421808766E13    99.84635399489845        358.9798854741742        289.55571062627877       300.68121989412293       441.894365493979
10.200000000000001       2.697786255543626E13     2.697757578837267E13     100.13700111775293       361.26221506778927       291.472388119464         302.98737101485625       443.583709693845
10.3                     2.7511260356276715E13    2.751097076571533E13     100.43248246158927       363.5445170096235        293.38702215224896       305.2972427288536        445.2709652670235
10.4                     2.8049879767896074E13    2.8049587353836844E13    100.73283108988558       365.8267106532331        295.2996044980928        307.6106361326259        446.9475283502865
10.5                     2.859372079029411E13     2.859342555273715E13     101.03809605738276       368.10871694842103       297.21012944238          309.9273668974344        448.61442264887756
10.600000000000001       2.914278342347106E13     2.9142485362416176E13    101.34834244574478       370.3891500782726        299.11859384604446       312.2472667914001        450.2726686369938
10.700000000000001       2.9697067667426703E13    2.9696766782874023E13    101.66365139915766       372.6668464838992        301.02499721909413       314.557035304911         451.9232834216184
10.8                     3.025657352216113E13     3.0256269814110652E13    101.98241658135461       374.9433557616777        302.9293418040978        316.8516208889484        453.56728071288035
10.9                     3.0821300987674312E13    3.0820994456126113E13    102.30561831814117       377.2185845434709        304.8299305339523        319.1390684334874        455.2056709023854
11                       3.1391250063966375E13    3.1390940708920367E13    102.63340732746408       379.4924408992128        306.7253932632217        321.4181565645963        456.83502290508414
11.100000000000001       3.1966420751037176E13    3.1966108572493426E13    102.96581859596867       381.7648343379692        308.61728656987384       323.68767251209755       458.45670334244704
11.200000000000001       3.254681304888679E13     3.2546498046845117E13    103.30289913996576       384.0356758090519        310.5054491649781        325.9464161846976        460.07299634721244
11.3                     3.313242695751512E13     3.3132109131975754E13    103.64470803070809       386.3048777030987        312.389719907598         328.1932045784143        461.6845750870674
11.4                     3.372326247692234E13     3.3722941827885094E13    103.99131641966284       388.57235385318313       314.26993798274157       330.4268765256616        463.2921043989989
11.5                     3.431931960710829E13     3.431899613457335E13     104.3428075636836        390.83801953592643       316.1459430989122        332.65179541756623       464.8962407427342
11.600000000000001       3.4920598348073086E13    3.492027205204028E13     104.69927684999114       393.10179147259083       318.0175757052774        334.88956824374486       466.4976322342924
11.700000000000001       3.5527098699816664E13    3.5526769580285984E13    105.06033154664063       395.3635878301886        319.8852862805402        337.12182986897085       468.09691876042524
11.8                     3.6138820662338914E13    3.6138488719310555E13    105.42342173821982       397.6233282225929        321.7544495284928        339.34862982299967       469.694732174752
11.9                     3.675576423564006E13     3.675542946911392E13     105.7907209260063        399.88093371161773       323.6210379383018        341.57003388678714       471.29169657637675
12                       3.737792941971989E13     3.737759182969598E13     106.16224882610592       402.13632680812174       325.4851455505332        343.78612530846135       472.8884286717
12.100000000000001       3.8005316214578805E13    3.8004975801056875E13    106.53803511373032       404.3894314730925        327.34686855092315       345.99700616927316       474.48553821999985
12.200000000000001       3.863792462021623E13     3.8637581383196586E13    106.91811943982154       406.6401731187143        329.20630527731197       348.2027989033286        476.0836285635188
12.3                     3.92757546366325E13      3.927540857611515E13     107.30255144784451       408.8884786094267        331.063556238157         350.40364797531544       477.6832972424132
12.4                     3.9918806263827625E13    3.9918457379812375E13    107.69139079067745       411.1376108531435        332.9187241426096        352.573680305226         479.28513669507885
12.5                     4.056707950180148E13     4.056672779428849E13     108.08470714755101       413.385477642308         334.7719139421587        354.724505624719         480.90228286464423
12.600000000000001       4.122057435055412E13     4.122021981954325E13     108.48258024098406       415.63110130817125       336.6232328838753        356.8585491593667        482.53243443318496
12.700000000000001       4.187929081008539E13     4.187893345557694E13     108.88399448766016       417.8744049929395        338.47279057526646       358.9745984467773        484.17113554751813
12.8                     4.2543228880395664E13    4.254286870238929E13     109.28794425667456       420.1153130606214        340.3206990607195        361.0714336078739        485.81932371050505
12.9                     4.321238856148467E13     4.321202555998056E13     109.6957969162754        422.3537510976975        342.16707290959          363.1478307459748        487.47793370189686
13                       4.3886769853352516E13    4.388640402835057E13     110.10757442656326       424.58964591378674       344.0120293159127        365.20256574344495       489.1478976622638
13.100000000000001       4.4566372755999086E13    4.456600410749925E13     110.52330743721372       426.8229255422734        345.85568820977176       367.23441846548394       490.8301452350055
13.200000000000001       4.525119726942449E13     4.525082579742687E13     110.94303529912105       429.0535192409981        347.6981723803194        369.2595516146285        492.52560376710653
13.3                     4.5941243393628625E13    4.5940869098133266E13    111.36680607624794       431.2813574928889        349.539607610447         371.2847143232531        494.2351985691329
13.4                     4.663651112861166E13     4.663613400961837E13     111.79467655764006       433.50637200661646       351.3759710113687        373.29621091749436       495.9598532350432
13.5                     4.733700047437347E13     4.733662053188239E13     112.22671226956925       435.72849571724583       353.20427531424923       375.29404388740903       497.7004900223197
13.600000000000001       4.8042711430913945E13    4.804232866492511E13     112.66298748778017       437.9476627868735        355.0294711608868        377.278201569724         499.4580302928951
13.700000000000001       4.87536439982332E13      4.875325840874646E13     113.10263502511361       440.16380860528          356.85150072228583       379.2486599061479        501.2333950154036
13.8                     4.946979817633131E13     4.946940976334699E13     113.54569387876124       442.3768697905358        358.6703082580729        381.20538457075486       503.02750532911506
13.9                     5.019117396520827E13     5.019078272872613E13     113.99255608444906       444.586784189659         360.485840116865         383.14833347363447       504.8412831699995
14                       5.0917771364863984E13    5.091737730488387E13     114.443207065541         446.79349087921236       362.29804473660005       385.0752088331441        506.6333290815661
14.100000000000001       5.164959037529843E13     5.164919349182047E13     114.89763197734524       448.9976282454923        364.10687264489127       386.9744066365801        508.41397650346136
14.200000000000001       5.2386630996511734E13    5.238623128953608E13     115.35581586071078       451.2028166301396        365.9122764594072        388.8540029751719        510.2035626241046
14.3                     5.31288932285038E13      5.312849069803048E13     115.81774383418309       453.4050944628768        367.7142108882136        390.713197979045         512.0021841062716
14.4                     5.387637707127465E13     5.387597171730337E13     116.28340132477175       455.60439567347976       369.51263273015365       392.5511710708143        513.8099352052909
14.5                     5.462908252482424E13     5.46286743473553E13      116.75277433740604       457.8006553463424        371.30750087522296       394.36708526243984       515.6269078594853
14.600000000000001       5.538700958915257E13     5.538659858818578E13     117.22584976312685       459.99380972087215       373.09877630493185       396.1600919189335        517.4531917965256
14.700000000000001       5.615015826425997E13     5.6149744439795266E13    117.70302970326198       462.1837961918614        374.8864220927104        397.92933599013753       519.2888746557182
14.8                     5.691852855014599E13     5.691811190218344E13     118.18396093009886       464.3705533098538        376.67040340425854       399.67396171034653       521.1340421264487
14.9                     5.769212044681073E13     5.769170097535041E13     118.6685562110407        466.5540207815452        378.45068749795036       401.4493533489565        522.9887781028839
15                       5.8470933954254266E13    5.847051165929623E13     119.15676606433034       468.73413947015126       380.2272437252231        403.2314584408105        524.8531648550334
15.100000000000001       5.925496907247651E13     5.92545439540208E13      119.64853669612815       470.91085139579735       382.00317866506987       405.0123964930299        526.7272832163262